LAMMPS data file via write_data, version 2 Aug 2023, timestep = 905, units = metal

33876 atoms
6 atom types

0 70.102 xlo xhi
0 70.102 ylo yhi
0 70.102 zlo zhi

Masses

1 12.011
2 35.45
3 1.008
4 14.007
5 15.999
6 32.06

Atoms # atomic/kk

2186 5 2.8046338803255413 0.8744018469109769 0.14507595574138807 0 0 0
2188 3 1.8534138539232716 1.0190730107569332 0.2338853322449683 0 0 0
30511 3 67.48210248643096 21.536727124669376 0.4630396792348614 0 0 0
2500 3 69.82398269797568 1.5366247024747917 2.5360792193341446 -1 0 0
11547 3 28.259725336179955 0.19969584335120924 9.164620894108673 0 0 0
2187 3 3.2344305049674436 1.0515064438304504 1.0024501077142207 0 0 0
2237 5 4.525663480550892 1.4261663471654027 2.4015197140718465 0 0 0
2238 3 5.275106952297633 1.1218983890426686 1.8587873457935786 0 0 0
2104 3 8.823683200793052 2.521243070595889 2.2667481487760974 0 0 0
2162 5 6.563174623042585 0.7652268982841703 0.5669552368682622 0 0 0
2163 3 7.47456104021359 1.0286344900383928 0.7837844709000832 0 0 0
2423 5 9.24516905857335 1.1805776628530429 1.1208197221888025 0 0 0
2424 3 9.92093680783171 1.5000817227844012 0.5022611680671252 0 0 0
2425 3 9.597408042834292 0.3416679865211596 1.4504086356585033 0 0 0
20737 3 44.72056375804726 7.00800822870445 0.17515541887218114 0 0 0
4170 3 12.065559298675842 0.8282666171670704 0.17461679504308145 0 0 0
2343 3 14.306906853658736 2.056724246646818 1.212057883752324 0 0 0
14773 3 25.700145858765193 24.63189194217525 0.2664684716269 0 0 0
2342 5 15.220606283138562 2.2888636019636017 1.0275417540950944 0 0 0
2344 3 15.512511154252339 2.8093890513411126 1.8031026051011034 0 0 0
9264 3 16.113037933852713 0.5216987954678722 1.2948350898826306 0 0 0
2578 3 9.958534988058396 0.9002591423066609 10.902251715534659 0 0 0
11468 5 19.911151648517347 1.1651690565206347 2.330729349286294 0 0 0
11469 3 19.814519749882248 1.6372062312315663 1.4919739599248156 0 0 0
11470 3 20.786765691829842 1.4480480855812707 2.6464935342458946 0 0 0
13147 3 20.036203175771554 11.045291340904239 0.33300019658538366 0 0 0
27151 3 60.214584770982924 0.10284527021125023 3.3273435126558577 0 0 0
11210 5 22.378656259133386 2.4010847195631735 3.0564321662227134 0 0 0
11211 3 23.130166021845014 1.980617685648698 2.597700381711472 0 0 0
11077 3 27.182251493468264 2.1702495225465155 2.377884108666688 0 0 0
11135 5 24.46967804403109 1.4905728456940543 1.5316392784292316 0 0 0
11136 3 25.3587178677711 1.1199353076219944 1.5856244398892163 0 0 0
17749 3 18.50430559068762 0.7349423261096185 31.101102420275065 0 1 0
11393 5 27.188431698207005 0.6535618137802773 1.3881153287272872 0 0 0
11394 3 27.885798066883634 0.9537857516140579 0.7852613055086622 0 0 0
11156 5 33.08978600074033 12.713840474516662 0.2503651738015385 0 0 0
9823 3 10.985572829730208 0.49986030235844187 32.000264720312394 0 1 0
13113 3 30.14586129054486 0.7561171081038823 0.6563568270058029 0 0 0
11316 3 32.150162709346624 2.583484696682481 1.5836019389429044 0 0 0
11548 3 29.19727244858687 0.3061957089401167 10.359777777541215 0 0 0
11315 5 32.926366729386565 2.8639555069576144 1.089680270146305 0 0 0
11317 3 33.468364587828304 3.3345872008183894 1.7461712837716399 0 0 0
17142 3 33.85607767901894 1.1673235609734092 0.8631899673208683 0 0 0
25927 3 37.35820618324855 0.5664708562318247 31.647457789187925 0 1 0
19322 5 38.035655990534536 1.2944580634290153 1.9696477450819168 0 0 0
19323 3 38.22022052977453 1.8772093466698758 1.218319896769396 0 0 0
19324 3 38.889333904059654 0.893641216002348 2.201173755998338 0 0 0
19013 5 40.59444104263602 0.23508707546173171 2.6525080802152607 0 0 0
19014 3 41.188126749431234 1.0032375455615543 2.6013952330199523 0 0 0
29416 3 66.63387791587168 33.65765102099275 32.801222050563226 0 0 0
19064 5 42.52248503567073 2.278256690748621 2.627920898593244 0 0 0
18989 5 43.817890344190616 1.2350439829005704 0.45496372160377546 0 0 0
18990 3 44.76538568152535 1.3665518129150023 0.6498649909189719 0 0 0
14271 3 25.404516406884884 34.80078669676571 30.685832464637286 0 0 0
19065 3 42.984683595411056 1.9644300885960346 1.8233849547528291 0 0 0
18934 3 45.80994284630814 2.8353687510341223 2.4514825082872855 0 0 0
19247 5 46.37868510844684 1.378516110341141 1.3144225057674455 0 0 0
19248 3 47.1300923120119 1.6045169827290438 0.7421437536821598 0 0 0
19249 3 46.681609648657954 0.6121417461935912 1.833645331003644 0 0 0
21934 3 53.53902983110332 34.45324569765573 34.83530625603835 0 0 0
19170 3 51.13332168522734 1.863954516339621 1.5705506499633168 0 0 0
1618 3 23.24902670274272 34.60945255336393 34.28264270732095 0 0 0
29415 3 67.37019447385583 33.40583083535097 34.10648363721777 0 0 0
20943 3 49.30380915668819 1.0271606771659787 0.2787110565276088 0 0 0
19169 5 51.795211062904976 2.3666230821374143 1.0830651665498758 0 0 0
19171 3 52.14887104470553 3.0300247306406733 1.6967415577544422 0 0 0
25317 3 53.03900463531336 1.0595325057503628 0.8419160740854618 0 0 0
25717 3 43.126967927113284 0.07151133026337779 26.517424021044043 0 1 0
27392 5 56.703973791592695 0.5200903729645732 2.0637916230605495 0 0 0
27393 3 56.76505534677429 1.1069056661618988 1.2963336931017528 0 0 0
27394 3 57.61068258996129 0.38193972242345176 2.3719287746565 0 0 0
27149 5 59.56993350811548 0.25843345065204487 2.620857877190432 0 0 0
27150 3 59.73089579767572 1.1799207695454903 2.351233091947428 0 0 0
19401 3 46.97491916749105 1.0347469137357728 9.836810744581106 0 0 0
27188 5 60.43943661240002 2.7681213074712394 1.944879705902548 0 0 0
27131 5 62.378898124148904 1.4061569678930828 0.37088235967033834 0 0 0
27132 3 63.31940054815748 1.5778126265625223 0.5348533797344229 0 0 0
27189 3 61.20727412254414 2.389140141126893 1.483662906734261 0 0 0
27088 3 64.27890760297726 2.5441689483592995 2.5703518223340898 0 0 0
27338 5 65.02352349143116 1.2794937924258318 1.3680486956257776 0 0 0
27339 3 65.92597213764726 1.5438639379699983 1.1066598930991263 0 0 0
27340 3 65.07407177548131 0.35832611391093827 1.6464010120674182 0 0 0
28673 5 67.60304984141715 2.1042616085736547 0.5662154358522299 0 0 0
28674 3 68.15295548755564 2.495630134237293 1.2596561873078596 0 0 0
27187 3 69.75187820403828 6.074184414461023 0.4007311330333745 0 0 0
2239 3 4.507512523277681 2.3886999219988247 2.2583346280613767 0 0 0
2399 5 4.10150084143916 4.13853841205955 1.81862766628164 0 0 0
2400 3 4.584772752609145 4.934154997920112 2.086133032332711 0 0 0
2401 3 3.2398889966763864 4.201518761122131 2.276739886386837 0 0 0
2102 5 8.928549355127938 3.4014793299045563 2.6631039356261885 0 0 0
2385 3 7.915339327670826 4.8495769042524275 3.1489300254815173 0 0 0
2103 3 9.463185674818565 3.8582108822859955 1.9854885861941878 0 0 0
2204 5 10.245118490780602 4.6502743985915025 0.5474423670056724 0 0 0
2205 3 9.647781208953122 5.427007143529757 0.570846418456386 0 0 0
2206 3 11.06373558747832 4.922052623621761 0.985181494617516 0 0 0
2309 5 12.632774174146983 5.3202591145795965 2.2239100891738453 0 0 0
2311 3 12.217956267369582 5.906190745853719 2.886665396674642 0 0 0
21357 3 49.41137214489898 34.501944726529146 7.057988865883652 0 0 0
2235 3 13.079904125592753 5.508131706241521 0.4125616470374814 0 0 0
21649 3 37.89335049060512 22.604860061825125 0.2548222355204552 0 0 1
1979 5 17.530543389368532 5.621440260780796 1.3719501931675975 0 0 0
1981 3 17.253120153964254 4.968767837035616 2.04003963971748 0 0 0
21067 3 54.34580386919568 8.304279253354894 0.1881439432435401 0 0 0
10938 3 19.36294405349135 6.291056141366647 1.3176903199758732 0 0 0
10939 3 20.371083042433796 6.881413936749744 0.3032394698045546 0 0 0
19648 3 40.07957545732828 0.13222320095386256 22.36935717588579 0 0 0
11212 3 22.269192977654882 3.238222548697538 2.5724021783638933 0 0 0
11369 5 22.458601127973374 4.793661036356005 1.6032243313498666 0 0 0
11370 3 23.02489040218362 5.315199571597606 2.20870673344642 0 0 0
11371 3 21.653345316353857 5.325334690101156 1.4988250639494873 0 0 0
11355 3 26.640066498231995 4.461094302784324 3.5629919990998684 0 0 0
11075 5 27.402769899425238 3.0224354151191006 2.794636409901261 0 0 0
11076 3 27.78568065172409 3.5594026906930782 2.0757476646125297 0 0 0
11177 5 28.2930823473039 4.689820405871023 0.7745868404935731 0 0 0
11178 3 27.747978046983746 5.498921959663485 0.7344531182191291 0 0 0
11179 3 29.173449970989605 4.9706953890136845 1.0568219184007097 0 0 0
13673 5 32.06591388529068 26.648867108286787 0.8262581021285039 0 0 0
11208 3 31.370474036127156 5.7509826359079534 0.624279898817456 0 0 0
21647 5 38.21459022413736 21.70350311969197 0.11396439065150714 0 0 1
11282 5 30.81421757873501 5.468776203727402 2.3247943263886044 0 0 0
10955 5 36.34059314610265 5.417839112854172 1.1148495953913076 0 0 0
10957 3 35.85030078508904 4.944205868957804 1.8095952546004976 0 0 0
5409 3 14.284466343073388 28.770581633177606 34.88797424365017 0 0 0
18792 3 38.32851291453281 5.7099088794023976 1.187010895083615 0 0 0
18793 3 39.35840077417732 6.280571185359261 0.18520008712567398 0 0 0
25316 5 53.64432701693747 0.30205523778304183 0.7363873312413441 0 0 0
19066 3 42.220435126394065 3.172477449714689 2.3955396897561356 0 0 0
19223 5 41.85899410320099 4.870653595061003 1.6399133466489204 0 0 0
19224 3 42.25110292910895 5.565149725872698 2.2017092174390815 0 0 0
19225 3 40.924207405824326 5.113338077976246 1.5526390411359838 0 0 0
19209 3 45.54311547306197 5.297903831738531 3.5577191602830673 0 0 0
18932 5 46.00669991741873 3.7241726785566516 2.782898063761428 0 0 0
18933 3 46.46348783767292 4.124713740238209 2.017230684886417 0 0 0
19031 5 47.18986331158875 4.8309137325210605 0.5496921140549368 0 0 0
19032 3 46.754102703815185 5.702462990710968 0.5723356633607952 0 0 0
19033 3 48.08514414646654 4.926121198969647 0.9142190669845741 0 0 0
13867 3 30.50410382035632 27.468368578886103 0.31618654717181993 0 0 0
19062 3 50.60012685012772 5.284906298564736 0.4800126719017576 0 0 0
19136 5 49.60935354290513 5.004719882477545 2.0834943421436694 0 0 0
19138 3 49.26473148697082 5.765445693931626 2.580527889132719 0 0 0
18811 3 54.50251875183563 4.890114663977285 1.663417199307919 0 0 0
1322 3 43.77269007382933 34.947735001129196 34.14025685295928 0 0 0
29437 3 64.74135227386603 34.91659137507385 25.944322025978845 0 0 0
18809 5 54.966761586975316 5.430376161203944 0.9971708895558572 0 0 0
26975 5 57.63324799785419 6.660352586734652 0.8855945476337 0 0 0
26976 3 56.80785992885812 6.177703783983437 1.0405447330655464 0 0 0
27391 3 56.76359872100227 3.3389116204662743 0.023349016177378015 0 0 1
26977 3 57.45132732607655 7.282284954276402 0.1541334477159867 0 0 0
27190 3 60.06328645416836 3.4326589815200044 1.3435929291215745 0 0 0
27317 5 59.771518274485366 4.934268967919119 0.2611896883085652 0 0 0
27318 3 60.43054742415344 5.463539569281829 0.7453010593669167 0 0 0
27319 3 58.947420296397894 5.416217896772783 0.4580126440990342 0 0 0
28502 5 63.61189034919295 5.160684661487887 0.8745189549055414 0 0 0
28503 3 62.89662229891507 5.697100198528289 1.2584082796964167 0 0 0
27086 5 64.02728773942495 3.3895063060018997 2.9735619538958518 0 0 0
27087 3 63.970778714884894 4.007040344429582 2.2243598527159123 0 0 0
29383 3 0.40374875866987 23.794308695922204 34.98252870617683 1 0 0
27168 3 65.20113555737038 5.827170441856114 0.3720021390525523 0 0 0
27169 3 66.65730958243732 6.148057431303249 0.7217492933027057 0 0 0
27185 5 69.60752022445403 6.910640489261781 0.875211573378401 0 0 0
27186 3 68.93491744989646 6.69834191278242 1.5465470852423975 0 0 0
27245 5 67.50808162244257 5.986180397938645 2.4027093311392487 0 0 0
1961 5 2.1616780989101203 7.070811073626092 1.79234175187408 0 0 0
1962 3 1.2182837259041368 7.132682425410285 1.566750932182982 0 0 0
1963 3 2.5535177394646498 6.597316952076052 1.0461884293383208 0 0 0
2128 3 2.965453710922934 8.482259018872414 2.408272222432034 0 0 0
2072 5 5.22232439285486 6.6009157329082555 2.683295081499746 0 0 0
2073 3 5.5034851442954515 7.4759239926979815 2.381169083186089 0 0 0
2126 5 3.26747669471946 9.35610718970273 2.7346751565028455 0 0 0
2127 3 4.130588675404328 9.530872024234567 2.3427140253761656 0 0 0
3959 5 8.407245200188395 6.656227705387351 0.7349478312992085 0 0 0
3960 3 8.245083662336011 6.6397350222436735 1.6932135183645949 0 0 0
2459 5 9.82939532084507 8.892873564102175 2.8129139968458015 0 0 0
2460 3 10.437557827458741 9.331764128699334 2.2009699156173608 0 0 0
2545 3 12.369233713630114 9.447436733304981 0.41645050346905477 0 0 0
17542 3 24.906595077171175 0.8191157184978818 27.81308245112765 0 1 0
13865 5 29.756301872064586 28.03168737196004 0.05531962431025684 0 0 0
2408 5 15.013768817611211 7.164686092404256 1.828472927565382 0 0 0
2410 3 14.70838342834398 7.768936871691764 1.1371471515765035 0 0 0
1980 3 17.005767809006496 6.413528883117514 1.5751423822170296 0 0 0
2227 3 17.925984043996294 7.5352270248789 3.4706570107628814 0 0 0
4292 5 17.66078387492953 8.540202573559611 1.7827088845569905 0 0 0
4294 3 17.895594511606863 8.574345017150053 0.8436851047319956 0 0 0
10937 5 20.27335730775172 6.624177001144699 1.2273405897249956 0 0 0
11101 3 20.633638809564726 8.250012932598707 2.180887447094217 0 0 0
11045 5 24.06675535921802 6.275572658839083 3.264947323957922 0 0 0
11046 3 23.967507740448397 7.210007580395712 3.006438480957073 0 0 0
12905 5 26.67516381293403 6.943713424427732 0.46230105847177777 0 0 0
12906 3 26.80893621869992 7.515942994643075 1.2405188928053879 0 0 0
11429 5 27.66422910206831 8.681217282383468 2.3727753503300453 0 0 0
11430 3 28.223943756731753 9.228054084196831 1.7950536563208352 0 0 0
9740 5 17.229243718146034 0.20048011003483146 18.226870276496136 0 1 0
19472 5 48.06185326572568 14.503065115306716 34.81565830187539 0 0 0
13719 3 27.11350440844491 34.9227032159362 14.992969472717109 0 0 0
11378 5 32.99803993861608 7.685145766988128 1.7871164214678417 0 0 0
11380 3 32.534689160514276 8.127341651945716 1.0593253482426386 0 0 0
10956 3 36.16775514649413 6.365452814267751 1.280410924073718 0 0 0
13235 5 35.81342051023087 8.081049003999368 1.6074508724650167 0 0 0
13237 3 35.93667365042445 8.613479267533865 0.8066951563463401 0 0 0
11200 3 36.69271614699275 7.875496389572644 3.3578225210233748 0 0 0
18791 5 39.232378787375886 6.062509550020811 1.1178037347853484 0 0 0
18955 3 39.508758263285586 7.7743664348631585 1.9748211334907197 0 0 0
18902 5 42.98638072893241 6.9346396844780225 3.159378151173608 0 0 0
18903 3 42.83267612559774 7.832608612149832 2.8255603573793393 0 0 0
20735 5 45.65777144909654 7.14547988030562 0.3908262839939768 0 0 0
20736 3 45.69964255234447 7.812644105055715 1.0998481594341294 0 0 0
19283 5 46.176782455997575 9.037965412293907 2.371279631693538 0 0 0
19284 3 46.512844412272166 9.807786264565749 1.8654888044405296 0 0 0
19369 3 48.223989771374384 10.692320624260075 1.2401400048426952 0 0 0
18888 3 51.72996755787716 10.172707290902803 2.210623967100521 0 0 0
19232 5 49.53682617916814 9.462634276691892 1.6461155586327003 0 0 0
19234 3 49.79444089358939 9.036131728243706 0.8133342947565342 0 0 0
18810 3 54.58258058728632 6.320992383418248 1.099645614222237 0 0 0
21066 3 53.4220812619256 8.599304058896575 1.3655811884561149 0 0 0
19054 3 55.3596502632729 7.941966534758894 2.744785385743082 0 0 0
21065 5 54.20217636272321 8.076206390709944 1.1257837679554206 0 0 0
27106 3 58.54618625044519 8.05748278070908 2.0039047325182286 0 0 0
27059 5 61.40897307581444 6.497722461221568 1.8789071613648654 0 0 0
27060 3 61.53890823663822 7.460743303041698 1.786874601197855 0 0 0
27365 5 65.69121986411093 10.044615528079271 3.115642305888626 0 0 0
27366 3 65.8115915164582 10.274820434652387 2.176680877389187 0 0 0
14193 3 25.662027672665836 34.730984356217256 18.854076271826013 0 0 0
29218 3 56.05276186386424 22.657536455365527 0.01671024234741477 0 0 1
27326 5 68.64784475925889 9.651960878875114 2.7045463397535605 0 0 0
27328 3 68.47047351267466 9.654785378417593 1.7521131968550414 0 0 0
27424 3 66.87087664037782 10.098586330153948 0.16315719389187588 0 0 0
2365 3 0.3240374843917899 12.746982894156762 2.2849714495463846 1 0 0
2594 5 0.9410114912531515 10.982275630167889 2.6033766559648743 0 0 0
2595 3 1.7222900411751654 10.408765575738709 2.6733483196143664 0 0 0
2596 3 0.13754542901040237 10.435975742225043 2.719063340343484 0 0 0
19128 3 42.17963802592817 0.836217672297047 17.77082213516315 0 0 0
4203 3 1.0818181008607446 11.104557313264586 0.6528674795552484 0 0 0
2021 5 6.0674525387839875 9.238323897833869 1.9535953490937057 0 0 0
2022 3 6.634298056321654 9.584747535872234 1.232827001980668 0 0 0
2023 3 6.525626786190691 9.50270242193579 2.774069630841587 0 0 0
2543 5 11.601340736128629 9.92716760889063 0.7857900061630495 0 0 0
2544 3 11.748376195329532 10.873626315650887 0.6514206347884132 0 0 0
2057 5 15.373722966966408 10.272879423349275 1.3085774345536867 0 0 0
2058 3 14.789157127565392 10.277015174386793 2.087006925895877 0 0 0
5466 3 7.375573071704002 34.55910207609731 18.793203899166688 0 0 0
2184 3 14.615257202760953 11.44446349124179 0.2913647235876317 0 0 0
17088 3 32.52155372172302 0.033591538872528304 8.243914553315962 0 1 0
2059 3 16.12689173425294 10.843167383276855 1.5666759289643213 0 0 0
4085 5 17.420375717163388 11.936239237552943 2.0817327931035936 0 0 0
4087 3 17.15566637003794 12.860237605890706 1.9509148952730542 0 0 0
4293 3 16.764414493841386 8.90506200469436 1.7909004625281328 0 0 0
4086 3 18.339528148465273 11.809157635445864 1.7724039648015386 0 0 0
13145 5 19.978122867014626 11.371288501621356 1.2431290224635123 0 0 0
13146 3 20.27862356194096 10.621251229829296 1.779421862288999 0 0 0
11099 5 20.930313324485784 9.064865436681321 2.6142741044807147 0 0 0
11100 3 21.901694090886057 9.04906008358789 2.592465794510088 0 0 0
10997 5 23.77702880589893 8.91738508574236 2.4318543572644735 0 0 0
10998 3 24.141923072555013 9.200674286799233 1.578848656174614 0 0 0
10999 3 24.266821195240464 9.429544857830278 3.098078220522443 0 0 0
11513 5 29.136545579236078 10.022795467021316 0.36928481457162676 0 0 0
11514 3 29.396181072221005 10.951178817994608 0.4662113246992347 0 0 0
11030 5 33.73794599171639 10.536505994893552 1.7230074586108655 0 0 0
11031 3 33.24726450905684 10.055117669437934 2.4010680742321213 0 0 0
20689 3 43.71316765821494 19.169249648579203 0.1596390734784853 0 0 1
11157 3 33.20778549970029 11.87253331529921 0.7458938391778803 0 0 0
11158 3 32.14282083651807 12.872427209706235 0.21541992657023185 0 0 0
11032 3 34.550526651477064 10.849931472326839 2.157001319399196 0 0 0
13031 5 35.937083057246284 11.790255470148514 2.8420141301311364 0 0 0
13033 3 35.70103957426101 12.679253235930593 2.5292268842331236 0 0 0
13236 3 34.8496777524519 8.039045818815813 1.734927920216315 0 0 0
13032 3 36.81607357639782 11.57901839284323 2.480063939789597 0 0 0
20975 5 38.42769869508152 11.147771067467875 1.7272430261780967 0 0 0
20976 3 38.732101095468806 10.280672459924277 2.040374253104318 0 0 0
18953 5 39.64581397528096 8.63713583626437 2.3959616850264576 0 0 0
18954 3 40.58106093516124 8.840634347578858 2.293047771813936 0 0 0
18851 5 42.568719162514824 9.670596472543885 2.372643466869098 0 0 0
18852 3 42.86126260842505 9.918675151843548 1.4751702010916437 0 0 0
18853 3 43.25219261082527 10.027427032515899 2.971464307334835 0 0 0
19367 5 47.36459546368031 11.092840026433311 1.0076342953764266 0 0 0
19368 3 47.253766706586916 10.90300475249854 0.05479645378670065 0 0 0
32698 3 56.604520520763465 0.4086068445013872 12.658040600431343 0 1 0
19012 3 51.23455686695168 13.13693621946899 0.3772614643551182 0 0 0
18887 5 52.37950207029162 10.252469810000672 1.4931203932627064 0 0 0
18889 3 53.1918658305951 10.615202348313765 1.8973377402669331 0 0 0
19011 3 52.031604352850735 11.798017604946544 0.554797047047942 0 0 0
20863 3 54.6565390599929 12.306173309446567 2.2486665066828673 0 0 0
20861 5 54.765295520294615 11.352858002852694 2.400471138698038 0 0 0
20862 3 55.54935304223608 11.06434305671694 1.897420878261662 0 0 0
27381 3 58.20163689594348 13.958453831779044 3.0103864636038966 0 0 0
27456 3 58.056830497758995 9.892645411558572 4.054647611793873 0 0 0
28703 5 57.0594839067216 10.600675718604124 0.9550171260279627 0 0 0
27104 5 58.971551118981985 8.843189341142274 2.3767709570731776 0 0 0
27105 3 59.800148283144374 8.965283956655382 1.8974896017601706 0 0 0
28704 3 57.68585219010937 10.276354055822091 1.6172011563456172 0 0 0
27026 5 61.79986118695525 9.199745245988066 1.5576809068532569 0 0 0
27027 3 62.41244906964818 9.38685496501742 0.8281114494374684 0 0 0
27028 3 62.21817584735717 9.565992487794443 2.3557190828596672 0 0 0
27422 5 66.21968037694276 10.763872849237158 0.43622765553183745 0 0 0
27423 3 66.69433194478677 11.608169331796283 0.34012208996302773 0 0 0
11434 3 33.53900189698022 16.34809432374311 0.4696793891101136 0 0 0
28487 5 67.89175371121766 13.089335104549765 0.16841074327192218 0 0 0
28489 3 68.5558432393752 13.13898745432986 0.880129775246051 0 0 0
2033 5 69.97548471315115 16.121367843017378 1.4813001788458002 0 0 0
2034 3 70.04015903022817 15.22943005289414 1.8654541732959808 0 0 0
2484 3 2.8958519416830533 13.32504333162814 3.24124663041328 0 0 0
27116 5 2.8128061522315724 13.547004949608661 0.9943089943375818 0 0 0
27117 3 2.452914694413069 14.26238160540547 0.44879028819188327 0 0 0
27118 3 2.560220448835949 12.743321513165837 0.5167596984405657 0 0 0
2228 5 5.457849006035201 13.543446318823081 2.0922077759548836 0 0 0
2229 3 5.042539837881154 13.290645910312163 2.929919931888256 0 0 0
2230 3 4.695309556963438 13.644942313947345 1.5047287620737422 0 0 0
2443 3 6.843663308055075 14.720910532896987 2.1123634583165924 0 0 0
2535 3 8.668406371743398 12.77981543524688 1.8533757400400441 0 0 0
2536 3 8.422546426512831 13.331472255285377 0.4146222116250383 0 0 0
2579 5 8.311701966916225 12.765106706845918 3.682923660554317 0 0 0
2453 5 12.192283916463321 15.582166766811044 0.06888113176738583 0 0 0
2454 3 11.937144929146323 14.645349955339572 0.12654488155616053 0 0 0
2501 5 11.67089606820978 12.887670644106622 0.6501941445753374 0 0 0
2502 3 10.695313974163133 12.812520465224056 0.7024407781280916 0 0 0
2503 3 11.973340621214636 13.038564117105697 1.5709167795410137 0 0 0
2534 5 8.932584561589207 12.67138421016202 0.9196760690742692 0 0 0
2141 5 15.581091695886514 13.944218900026279 1.8345361641713436 0 0 0
2142 3 15.440114616977864 14.854854413904814 1.5536996124224511 0 0 0
2143 3 15.116574183365117 13.410131888724896 1.168449150189585 0 0 0
4151 5 19.392012839891812 14.321176769804268 2.5579959286008176 0 0 0
4152 3 19.571266431174433 14.418386973356839 1.6112920015754932 0 0 0
4153 3 19.077408747556007 15.193998833145704 2.820582111538419 0 0 0
11454 3 21.032196408588383 13.634425678957774 3.2302021559499154 0 0 0
11201 5 23.482607961578214 14.688865173631074 1.6695579669306664 0 0 0
11202 3 23.006578256684893 14.261958645413927 2.4082589721562964 0 0 0
11203 3 23.677551429535956 13.985638218289116 1.0324660492204876 0 0 0
11453 5 21.913497040017127 13.480072426429548 3.613131156735325 0 0 0
11413 3 25.145898075954538 15.636529391365675 1.8275640993047597 0 0 0
11505 3 26.711126993246985 13.071580326551894 1.737057442819704 0 0 0
11549 5 26.062209331962087 12.675848831675642 3.39789257886622 0 0 0
11472 3 28.91483734793635 13.021817452183068 1.0628734066431231 0 0 0
11504 5 27.100492553094476 13.48866176694012 0.9444308490900973 0 0 0
11506 3 26.92246724381202 14.436539982893294 1.0915520513956722 0 0 0
11423 5 30.475798653630033 15.552222233671712 0.5687442929845344 0 0 0
11424 3 30.21660541584011 14.624665245716788 0.705195512186596 0 0 0
11471 5 29.866782588699074 12.82904097389276 0.9813434834384555 0 0 0
11473 3 30.2176561460791 12.720163420720878 1.8861628701821997 0 0 0
11114 5 34.96039599291605 14.181670144081242 1.7294332986118433 0 0 0
11115 3 34.45878709122694 14.80361687353826 2.267028686286342 0 0 0
11116 3 34.299735002247715 13.785352305120936 1.1320955121054972 0 0 0
18864 3 36.30219747115135 15.436359906132106 1.3540481710006231 0 0 0
19308 3 39.33086098971581 12.540108518986656 2.6744918267501094 0 0 0
19055 5 41.84004500583467 14.588372166318347 1.6843503491816005 0 0 0
19056 3 41.17201288321374 14.091973061523914 2.1873615102531505 0 0 0
19057 3 41.89524795015665 14.16972010297514 0.8229428383642666 0 0 0
19307 5 39.92596661276446 13.091631922392933 3.207972422016431 0 0 0
19267 3 44.85257587668741 14.53649733506808 2.1066487176045046 0 0 0
19403 5 45.05936395312212 13.206415692931238 3.4607770989941833 0 0 0
19326 3 48.91034162649132 13.983982967707309 0.8229925347675995 0 0 0
19358 5 47.198917649023144 13.837479686190573 0.24687264815519191 0 0 0
19359 3 47.13227685652499 12.939347755418739 0.607105382915671 0 0 0
19360 3 46.55390894702091 14.37342201571378 0.7530141601129738 0 0 0
22864 3 38.80262235908274 28.756532464761378 0.3462051603228646 0 0 0
19278 3 49.94735471027355 15.765788245821621 0.3914792859741844 0 0 0
19325 5 49.845064850136424 14.13048398094846 1.0543139010251559 0 0 0
19327 3 49.944497657468496 13.883937095171975 1.994113786909302 0 0 0
18968 5 54.077812872458 13.941911646696552 1.6282218643038393 0 0 0
18969 3 53.69667628930871 14.68291334682715 2.122508195639719 0 0 0
18970 3 53.358922500383265 13.58373505344431 1.0713581263375072 0 0 0
27032 5 56.75682649855596 14.837303995777114 1.6697560451798654 0 0 0
27033 3 55.88189724437119 14.431380128853924 1.5498784756594575 0 0 0
27182 5 60.490104395043296 15.448352734337373 1.68278527010053 0 0 0
27183 3 60.07285365273816 14.961784808818532 2.416780066344094 0 0 0
27184 3 60.339486272669326 14.919983604245056 0.879300094701312 0 0 0
27380 5 59.023820477456994 13.839585225080429 3.504276117099829 0 0 0
27355 3 62.21527452222707 16.101835375609962 1.3807337174713734 0 0 0
27449 5 63.258682069717786 12.999520777776798 3.526994921181558 0 0 0
27413 5 64.73854537851248 14.343856665548184 1.4680806414640515 0 0 0
27414 3 64.11778376427607 13.717868441171861 1.8651710025176245 0 0 0
27415 3 64.22644108529278 15.16911033431495 1.387241981756482 0 0 0
2035 3 69.04880271614145 16.193086758658957 1.1861828367452467 0 0 0
2363 5 69.76534479915829 13.448204215304548 2.2112634984769253 0 0 0
2364 3 69.29103630266331 13.475464226763608 3.0646939764825274 0 0 0
27359 5 67.33476214522081 15.907938686640971 0.7430407761819485 0 0 0
27360 3 67.27436841218692 14.985306536706982 0.4560557444605717 0 0 0
3971 5 1.460690478531972 18.269968161179502 2.271642305610974 0 0 0
3972 3 1.802065709611478 17.95558056746238 3.129897556974053 0 0 0
3973 3 0.841499524142446 17.571485217384264 1.99101241287205 0 0 0
4281 3 3.063988150962504 17.43456961979943 1.3049210795687918 0 0 0
2146 3 4.686128577433882 16.442519330059547 2.7034760928220756 0 0 0
3912 3 5.588594560870421 16.97980050078412 0.3844993101499556 0 0 0
4280 5 3.8094081371906277 16.883749711070838 1.0272895294480364 0 0 0
4282 3 3.5806107667646416 16.49612900560851 0.17110425516063912 0 0 0
2441 5 7.555983265885944 15.380808415474482 2.0564942350025373 0 0 0
2442 3 7.293312916045539 15.996012749478098 1.3577445268616688 0 0 0
2598 3 8.694809362646065 16.01639585750275 3.155429105985184 0 0 0
11274 3 23.553981949464315 0.7724043503539141 17.91079517866184 0 0 0
2135 5 11.045656025143392 17.46673915240267 1.7682711566087699 0 0 0
2136 3 10.523350771378205 17.099036179674354 2.5058232936333424 0 0 0
2137 3 11.349531802032088 16.709116230497834 1.241022062003145 0 0 0
4813 3 10.007348212376364 18.75424566319797 0.8914775897850903 0 0 0
2462 5 14.743428710279055 16.513757886868202 0.6775657237011466 0 0 0
2463 3 13.847775330386265 16.15519059028125 0.5341029288279003 0 0 0
4973 5 13.403590620384993 18.876127283854736 1.6158016401270137 0 0 0
4974 3 13.958199182364572 18.23142417047772 1.159786370302587 0 0 0
4975 3 12.57459913207734 18.406648565599355 1.8262032295748571 0 0 0
2079 3 16.720818116791317 16.80208505831046 3.35960484357756 0 0 0
2080 3 15.495517389958108 17.00886154125871 2.4315126143243577 0 0 0
12917 5 20.154634695829593 18.07049791227531 0.8101160140914521 0 0 0
12918 3 19.63485333517278 17.3161312557681 1.1064845180124525 0 0 0
25450 3 37.725346885867026 0.15121879494150103 12.47306310432672 0 1 0
11119 3 23.15660159204229 17.108316839224393 2.950993930389473 0 0 0
529 3 30.265588733120982 23.010361564536893 34.762578997831724 0 0 0
13223 5 22.741788928690074 17.29009329298675 1.1930631527579332 0 0 0
13224 3 21.830774641779616 17.628052717362294 1.1011230272117054 0 0 0
13225 3 22.71135394522443 16.324150491154953 1.1098066880290287 0 0 0
11411 5 26.036360609498008 15.990917621778861 1.6667355525402021 0 0 0
11412 3 25.92056245658621 16.664421342337903 0.9792314802547969 0 0 0
11568 3 26.884375058307377 16.568432106031356 3.175257074154071 0 0 0
546 5 27.898297321312278 33.000125497110254 33.506489388177904 0 0 0
11108 5 29.692975764496754 17.486751493592145 2.48107320552805 0 0 0
11109 3 29.00493751353383 17.188871150985843 3.0997715727733413 0 0 0
11110 3 29.912594056351004 16.734383316415716 1.9128754296566652 0 0 0
13747 3 28.65783814122358 18.97915354569874 1.8494849736744003 0 0 0
11432 5 33.05985917684849 16.433259572092243 1.3191637970447059 0 0 0
11433 3 32.178043224872155 16.080970851263753 1.1263682355567681 0 0 0
13907 5 32.08457279513598 18.81821986446915 2.41414003717578 0 0 0
13908 3 32.520395903255185 18.135115536072874 1.8843686138651765 0 0 0
13909 3 31.244579081113002 18.40480121207272 2.684525331061632 0 0 0
11053 3 33.94457983274249 16.806065716471867 2.9498886608636714 0 0 0
18863 5 36.98371776104688 16.129093998929953 1.3368554809508344 0 0 0
18865 3 37.00751125858165 16.51752648157812 2.2226147809653645 0 0 0
20747 5 38.9764490530451 18.030156273859884 0.4596448107748092 0 0 0
20748 3 38.18635299534361 17.487884450443566 0.5645645191375127 0 0 0
29754 3 63.644490206037965 33.79606669652312 24.196975861816384 0 0 0
18973 3 41.781227727729565 16.87877829587573 3.3025342097720007 0 0 0
21053 5 41.48682151327596 17.319280305440632 1.4822050840444887 0 0 0
21054 3 40.57784374815739 17.545450953359225 1.2196308715125905 0 0 0
21055 3 41.56930271339522 16.352370083589868 1.385291967721633 0 0 0