LAMMPS data file via write_data, version 2 Aug 2023, timestep = 775, units = metal

4953 atoms
5 atom types

0 41.638 xlo xhi
0 41.638 ylo yhi
0 29.442512155045456 zlo zhi
0 20.819000000000003 20.819000000000003 xy xz yz

Masses

1 12.011
2 1.008
3 14.007
4 15.999
5 32.06

Atoms # atomic/kk

863 2 3.6034270152414822 42.78157167990804 2.805610405559651 0 -1 0
1168 4 1.121868030945279 3.7317917285989717 0.4948494459903561 0 0 0
838 4 6.166786486425127 42.13060540505867 1.3821342929132658 0 -1 0
839 2 7.115096959381929 42.197489012405946 1.1952983561293613 0 -1 0
840 2 5.708280663495577 0.8344004986078 0.5997368538794551 0 0 0
913 4 4.908602599854131 2.3044219069347336 3.0333584205321076 0 0 0
914 2 5.46749168092135 43.33107518867049 2.5135913142553283 0 -1 0
915 2 4.832733972460907 3.093765983639551 2.462342686239914 0 0 0
778 4 7.777789408820435 4.13759951049536 1.6856386597686532 0 0 0
780 2 7.836690853940167 3.3128507400058647 2.197433389135736 0 0 0
1100 2 9.67645508285083 1.008844753036395 0.7384701583482908 0 0 0
1018 4 14.673751920189293 1.5012538198515193 0.9725562919580066 0 0 0
1019 2 14.17479540233887 1.8692618758606145 1.7059831568281956 0 0 0
1020 2 15.558483850035245 1.2592929900842327 1.3286989350644909 0 0 0
2788 4 17.167243355817178 42.50386019376615 1.8950610811103612 0 0 0
2789 2 17.47230395091714 41.78137474479134 1.3252800889012617 0 0 0
2620 4 41.283888536691485 23.004062872805694 29.18323139555523 -1 0 0
2622 2 21.082005554579997 2.841443471676789 0.11828556378756314 -1 0 1
3487 4 38.94274301116244 24.525248121387126 29.134837639892194 0 0 -1
3488 2 38.1162643732508 24.131650070689158 28.803154364608154 0 0 -1
3494 2 18.872468348148416 43.08922783556883 2.826702300756113 0 -1 0
2327 2 44.49966339450938 61.3792393326813 27.941158032118103 -1 -1 0
2752 4 22.609927585954928 3.6767969161361647 0.784750713519947 -1 0 1
2753 2 22.483892937680867 3.3310403827362993 1.687301311124939 -1 0 1
2754 2 23.207099371889658 3.072632294364645 0.3002522253382673 -1 0 1
3239 2 21.065279625850327 0.653415083144486 0.5841359243160043 0 0 0
2629 4 26.73282730999558 2.3507442228242983 2.2357903245027995 -1 0 1
2630 2 26.717222710379197 1.4997075753682407 1.7588453663435755 -1 0 1
2631 2 26.965156277909458 3.037126800162921 1.582596086907526 -1 0 1
2410 4 31.357220695509525 1.3409239538875417 1.2053148933297664 -1 0 1
2411 2 30.992493746196544 42.35862786451241 1.8566849619968635 -1 -1 1
2412 2 31.354078666324295 0.8260328851759458 0.3819793444495881 -1 0 1
2547 2 33.09046367508528 1.6522466393564637 1.4971799589912882 -1 0 1
2545 4 34.037276340803786 1.6930484887197759 1.7482426112343497 -1 0 1
2546 2 34.20775342330744 2.6177867626185396 1.9951516762604709 -1 0 1
4468 4 37.03201105912013 2.4221807549945744 2.646741599050974 0 1 0
4469 2 36.93133754775617 43.12494038215872 2.4323546991290423 0 0 0
2627 2 37.042458622088056 3.326662804986632 1.0487262020623251 -1 0 1
2628 2 58.95272114448457 24.409186245828387 29.44090826752488 -1 0 0
2696 2 40.80411406878602 43.539528489425244 2.924887543661777 -1 -1 1
4909 4 39.93383815863777 2.762437034228065 0.04671679938940021 0 1 0
4910 2 39.857152506464786 2.4830317114324183 0.9765295922223322 0 1 0
4911 2 60.70319549981476 22.75127400730492 28.99385522315259 0 1 -1
1169 2 0.18628667897545823 3.6350018659211587 0.25829497542143215 0 0 0
1175 2 42.79748421947836 2.830154854965935 2.170556209251172 -1 0 0
637 4 2.8571173933041467 6.129288960616817 0.983761226335323 0 0 0
638 2 2.13613164200446 5.48221816033396 0.993737250264464 0 0 0
639 2 2.658511295534461 6.7211171240939285 0.24183521626448404 0 0 0
748 4 6.032174892441098 7.086095140606084 2.8528456674755587 0 0 0
1062 2 7.661226371332265 6.610145614937004 3.5429754107217857 0 0 0
1075 4 5.006542489278187 4.247897115248193 1.1101274246447792 0 0 0
1076 2 5.938226538135227 4.504828692089509 1.2232779171084092 0 0 0
1077 2 4.459038357911444 5.04866515343871 1.0766852232178679 0 0 0
779 2 8.51024802827644 4.117734554540292 1.0450746825414794 0 0 0
880 4 30.781196348457357 25.115881726888897 29.397396840140946 0 0 -1
882 2 10.662825308837851 4.707798670577973 0.48794334229989816 0 0 0
1060 4 8.44769413692336 6.058114517156213 3.701239430412198 0 0 0
1061 2 8.30966499794111 5.346266627946335 3.053302022451852 0 0 0
910 4 14.652603962545973 5.670721221186259 0.2945610185731501 0 0 0
911 2 13.805760975355636 5.539170020528343 0.747389956590425 0 0 0
985 4 12.068582589567544 5.259105135858614 1.7295961238624789 0 0 0
986 2 12.10845044548088 4.563701953475885 2.411952262761179 0 0 0
987 2 11.762232069546275 6.029353753915919 2.232562871143371 0 0 0
655 4 16.81038933881209 4.839103133232712 1.8774509660317136 0 0 0
656 2 17.4013287069476 4.454767937821207 1.2047954970629868 0 0 0
657 2 16.650956708644294 4.126918137833361 2.5233615201926436 0 0 0
912 2 15.346273804375196 5.479692700983845 0.9549328463494959 0 0 0
2390 2 21.113832242960605 7.514001432166634 1.3085957124763166 -1 0 1
2391 2 21.906297631499033 7.08420598547356 2.5953395163844006 -1 0 1
2542 4 23.876933546031918 6.151238501385257 0.5361467824720467 -1 0 1
2544 2 23.501786324357308 5.268808936597194 0.7265178486426925 -1 0 1
2543 2 23.24305845937812 6.775044305841243 0.9369578211808598 -1 0 1
2571 2 25.64186730465764 6.651232813489001 0.7022763570021647 -1 0 1
2617 4 30.20773523652798 4.848817024526673 1.570202149301462 -1 0 1
2618 2 30.533085244929257 4.198539006327855 2.2156695785784963 -1 0 1
2619 2 30.332724361280818 5.71763924014384 1.9951374835980953 -1 0 1
2704 4 35.04923778525217 7.162321236326454 3.031302795933538 -1 0 1
2705 2 34.358650246786524 7.497905390322807 2.4369359893119196 -1 0 1
2706 2 35.80801755660205 6.949261842547815 2.450123477922214 -1 0 1
2626 4 37.237709058782976 3.858755688676895 0.2563005089710015 -1 0 1
2716 4 37.16910286760542 6.4673131493440295 1.4356585865196498 -1 0 1
2717 2 37.20013225971588 5.599274582310095 1.005680937853522 -1 0 1
2718 2 37.33650793293146 7.117752680713453 0.7345422670096196 -1 0 1
802 4 3.043297041919203 8.359096931992417 2.9172592604008125 0 0 0
804 2 3.074524435622615 7.53287539832212 2.411079432170451 0 0 0
697 4 5.353775787523448 9.874697821569026 2.296186556302951 0 0 0
698 2 5.339143767151562 10.601078994308917 1.6570110149932757 0 0 0
699 2 5.939296769699874 10.180017114889894 3.012848127758118 0 0 0
749 2 5.809397028446499 7.990497850758891 2.602382321440076 0 0 0
750 2 5.345927451182877 6.787257782452282 3.4688072393266336 0 0 0
803 2 3.747929287163724 8.924551516105769 2.562473746599123 0 0 0
937 4 7.318016329225337 10.596602410460982 4.206283727544359 0 0 0
4232 2 26.214866869165007 30.238466667180052 29.01649334913177 0 0 0
939 2 8.179718206308946 10.322133838981646 3.8263297536552656 0 0 0
1135 4 9.807148773762883 10.036535762963815 3.31163677802136 0 0 0
1136 2 10.142823480275839 10.494542517741342 2.5178272946185674 0 0 0
1137 2 10.153039032208694 9.134026270165558 3.2672780034064637 0 0 0
1219 4 10.726782087707246 11.278882879094503 1.0368126993294777 0 0 0
1220 2 9.965227094414429 11.12472386406757 0.4497187149137582 0 0 0
4351 4 29.274941236072415 31.81789611179942 28.96246628576514 0 0 0
4352 2 28.36248433076816 31.77517553620962 29.273780125182544 0 0 0
734 2 14.736663510950867 9.570662532610548 2.11016043199238 0 0 0
1021 4 12.56512868059452 9.414013960792534 0.21841586283392234 0 0 0
1022 2 12.926481743301764 8.727292480966362 0.7799393040695907 0 0 0
1084 4 13.345044880190748 8.90078284803615 3.093053656143159 0 0 0
1085 2 13.162597735467395 9.764421550336241 3.4981591321723684 0 0 0
1086 2 12.514227193969864 8.414427763516166 3.091581290170785 0 0 0
1221 2 11.407477718813048 10.644832050858845 0.7384660114740984 0 0 0
733 4 15.432588397416913 10.131527585264877 1.7296857970995838 0 0 0
735 2 15.905612943384776 10.514295290551878 2.4871606565866724 0 0 0
903 2 17.368817967036907 6.242882110090093 2.987232156433017 0 0 0
4898 2 16.576089729225195 9.25544570118762 0.636086900391915 0 0 1
2581 4 22.235249610967827 10.43607651985696 1.0493130685998373 -1 0 1
2582 2 22.18880044986837 9.592490733211323 1.529421362485423 -1 0 1
2648 2 42.48560559438626 31.030428299956743 28.708915025789242 -1 0 0
2333 2 26.185906048346787 11.030118175993422 1.8315659271482894 -1 0 1
2389 4 21.92371679997172 7.67162877991626 1.818571759970808 -1 0 1
3298 4 24.70149437940619 9.817966809792914 4.119589049961277 0 0 0
2332 4 26.868391119755245 10.967492026344333 2.52556967845269 -1 0 1
2345 2 28.481563458488118 8.855019718675708 0.35696950262174487 -1 0 1
2674 4 28.26356012037901 8.615282898124876 2.1958245317288245 -1 0 1
2676 2 27.72736687431889 9.398728156190518 2.4163526528398585 -1 0 1
3300 2 25.467179620757648 10.315477306830234 3.802659575966958 0 0 0
2529 2 29.68409685832076 10.821870333117575 2.335446193592995 -1 0 1
2530 4 32.49537333741612 10.619544396124986 0.4607015233791269 -1 0 1
2531 2 31.772038261472424 10.812649579886303 1.0833960048077549 -1 0 1
2675 2 27.630046410652618 7.8982373103843075 2.040017512776013 -1 0 1
3427 4 30.72789416975455 7.3537411097838 2.720645835631801 0 0 0
3428 2 29.990796388061792 7.9508961387753985 2.5236762887773714 0 0 0
3429 2 31.49766307581049 7.628137934619639 2.1851079173995926 0 0 0
2635 4 32.98456517085771 7.936174173163235 1.1990569900119856 -1 0 1
2636 2 33.12678910776432 7.361074040418571 0.421306925345807 -1 0 1
2637 2 32.91285950183718 8.844653730004762 0.8554739774255025 -1 0 1
2534 2 58.58124924411314 30.061217281743204 29.43363144374402 -1 0 0
2683 4 38.14515961872004 10.725604369201195 0.8659475618310724 -1 0 1
2684 2 39.025380330253206 10.68471951136322 1.292773950339793 -1 0 1
3276 2 35.597634704349886 8.532527751885123 4.176083359275991 0 0 0
4372 4 40.69130222727571 10.749344393941147 1.7821682608851988 -1 0 1
4373 2 41.079112038159664 9.95944750288075 2.2200657841430713 -1 0 1
4400 2 41.48575581251514 10.25462579302693 0.023290060176744332 -1 0 1
1270 4 41.85422526530059 8.515737459659706 2.6675520328725546 -1 0 0
1271 2 42.81484954969576 8.569274042582427 2.79122142088878 -1 0 0
1272 2 41.497846123385436 8.0513604256565 3.4413067808201756 -1 0 0
1159 4 3.3971614268743062 12.433609609829016 3.0833118630932725 0 0 0
904 4 4.8011548309960315 14.598960411732968 1.9268175438726174 0 0 0
905 2 4.508213616445508 13.780087059269132 2.3644307831650355 0 0 0
906 2 4.806329851902048 14.426844981649294 0.9711135839950289 0 0 0
1256 2 7.588177619155478 12.382685043679132 3.968597548630486 0 0 0
4309 4 5.769636098507294 11.761826603805204 0.21976750641669204 0 0 1
4310 2 26.320180574237348 32.74641765316952 28.750168311603343 0 0 0
4311 2 6.359170711285633 12.504674879571613 0.4598971060567081 0 0 1
1178 2 11.513476509652588 12.921330075446544 1.2146092487913809 0 0 0
1210 4 7.819775976334665 13.459768871880481 0.8802785317059713 0 0 0
1211 2 7.902055860607111 13.297149023963476 1.841205485332421 0 0 0
1255 4 7.759134541505963 13.273354998465113 3.6087631766668116 0 0 0
1257 2 8.607385501210864 13.591321556213613 3.9669798222241637 0 0 0
859 4 14.294036040446501 12.286280003498664 0.33185004614753777 0 0 0
860 2 14.621902208962588 11.503865149540253 0.8150719630208709 0 0 0
861 2 13.586556710651966 12.701163394263954 0.8615334751055149 0 0 0
1177 4 12.149671024022487 13.65445511298946 1.3086879573518015 0 0 0
1179 2 12.245642897475694 13.830304541209292 2.26148379306843 0 0 0
817 4 16.09204264410958 14.325120077790343 0.2252261407064793 0 0 0
819 2 15.441582299058531 13.59285449024132 0.3052967215992736 0 0 0
3389 2 17.560031353040795 13.548469814155638 1.1136969154912604 0 0 0
2548 4 21.22324852435192 12.660714704186434 2.6510096606482607 -1 0 1
2549 2 20.279931813792228 12.833975470860818 2.546844718411171 -1 0 1
2583 2 21.830865284651434 11.113004867615567 1.6150531686300524 -1 0 1
3388 4 18.35143259552105 13.095189644683837 1.4602982704370218 0 0 0
3390 2 18.53006333680763 12.413020063256175 0.7851560619676599 0 0 0
2550 2 21.64421593777442 13.534567668316118 2.6282067430452747 -1 0 1
2566 4 24.770409659478343 13.59433945215853 2.7915537510221933 -1 0 1
2567 2 24.5971604416905 12.838689591349116 2.204678876818716 -1 0 1
2568 2 25.71460509090243 13.777268298331029 2.6328875081137553 -1 0 1
2334 2 27.245093668479424 11.86039151116594 2.544207893360241 -1 0 1
2767 4 27.473321089355135 13.739416224452034 2.216153438927313 -1 0 1
2768 2 27.942299591354374 14.358959778540049 2.799685476683113 -1 0 1
2769 2 27.56640266219394 14.104176963536982 1.3210719791850785 -1 0 1
2464 4 30.187360678639394 13.39283112518511 0.29398991101389893 -1 0 1
2465 2 50.3312633570806 33.73366586390188 29.23449867148457 -1 0 0
2466 2 30.33718177730443 12.83851632762787 1.072001025027009 -1 0 1
2527 4 30.51346017846367 11.300061291666271 2.2659186730951566 -1 0 1
2528 2 30.899205574679602 11.331275692917007 3.165051545138126 -1 0 1
2562 2 33.70825679581113 11.951703661597502 0.5643290180464885 -1 0 1
2353 4 36.36369781525817 12.351667447343774 2.284148328697587 -1 0 1
2354 2 36.96008474380615 13.092108488847197 2.515758639219394 -1 0 1
2355 2 35.77875039496113 12.217314712475794 3.0476731003112683 -1 0 1
2560 4 34.375845666478746 12.639750081809103 0.372388882090347 -1 0 1
2561 2 35.10767309901519 12.519447951469171 1.0078850935771804 -1 0 1
2646 2 34.04564848161883 14.346602551872206 0.2841622412207059 -1 0 1
2685 2 37.522652429638015 11.128133134383857 1.4942278869816703 -1 0 1
2643 2 58.825954429215265 35.04183810138498 29.227760147793784 -1 0 0
2749 4 58.647818194514095 33.53006267420671 28.37649247501068 -1 0 0
2751 2 58.92409109053499 32.82410168233408 28.986789998998027 -1 0 0
4374 2 40.73743735799081 11.48334607366543 2.4151154221682383 -1 0 1
4726 4 40.55317098122234 13.034104915313597 3.533930188990306 0 0 0
4727 2 39.71071217254651 13.51138588143631 3.443689192639864 0 0 0
1039 4 42.25363995603662 14.349215549163338 1.7325728415067767 -1 0 0
1040 2 41.75746728323576 13.943162736563332 2.4647348867285634 -1 0 0
1041 2 1.028167762998005 13.612407888774564 1.2532277734910076 0 0 0
1160 2 2.9286749020381455 12.256385804449891 2.25174341065295 0 0 0
1956 2 2.429283924660001 18.08119332341936 1.8610044062525628 0 0 0
4720 4 2.634555971097829 16.29130076898005 1.631341119480309 1 0 0
4721 2 1.8676800588032436 15.705739103270414 1.7581512366023484 1 0 0
4722 2 3.4099370214071336 15.747366847403788 1.8657388678739764 1 0 0
820 4 5.303889000333948 17.466609391823642 3.3391254210888492 0 0 0
822 2 5.724024188703241 17.58163894133556 2.4810969999374515 0 0 0
1117 4 7.12790053155568 16.062172548331937 1.581748519149343 0 0 0
1118 2 7.606823862276959 15.385165590940977 1.083339284052182 0 0 0
1119 2 6.355100572631717 15.566649827027705 1.904648327502562 0 0 0
812 2 10.478178402754557 17.689143385670395 1.7612358605989216 0 0 0
1273 4 9.278132912423859 17.110817168809252 3.0103051805495076 0 0 0
1274 2 8.418918730420543 16.862035422544306 2.620217749933076 0 0 0
811 4 11.087212480883416 18.068460790958852 1.1001905497043787 0 0 0
813 2 11.433591174063766 17.325680078133733 0.5788262244522024 0 0 0
1129 4 33.35621148507275 36.812589698438046 29.23529977399305 0 0 -1
1130 2 12.334213240833547 15.113780070603246 0.16002429672030408 0 0 0
1139 2 14.114274318788805 16.647392147838097 0.40151644553662497 0 0 0
754 4 16.153978561136427 16.84034642754575 3.3779990366529447 0 0 0
755 2 17.088637001024328 16.85100297189216 3.103793198629967 0 0 0
756 2 15.659492560752254 16.920820779886018 2.5480372839406384 0 0 0
818 2 15.712259049167145 15.09317752460974 0.6763807542493792 0 0 0
1138 4 14.928040270629815 16.985399521794093 0.8184574401266986 0 0 0
706 4 18.762199811578807 17.21064691177891 2.3470182146673357 0 0 0
3115 4 19.415883479202535 15.498513075790983 0.20605576615310278 0 0 0
3116 2 19.257111550861307 14.659952967539011 0.6651937201815887 0 0 0
3117 2 19.125005696801384 16.182148160452417 0.8403986363368602 0 0 0
2452 4 22.65792126711254 15.282056751523848 2.560015588234026 -1 0 1
2453 2 23.484109269327796 14.756130622189255 2.588723584005677 -1 0 1
2454 2 22.524166502847063 15.556285444273177 1.627740157873551 -1 0 1
2991 2 23.694482966730416 16.9536976424629 2.9205882720083536 -1 0 1
4041 2 21.84651622370346 20.144804740555085 1.2698811814383024 0 0 0
2978 2 26.78789260920037 18.930234877092825 1.3889770655272042 -1 0 1
3571 4 26.964332744482984 17.838809648467443 2.882041048960657 0 0 0
3572 2 26.00971994434408 17.652006387000434 2.7961923830648145 0 0 0
2986 4 30.530819757199488 17.497994217327882 2.7657182563944884 -1 0 1
2987 2 30.7205344211393 16.94063515361161 1.9889128613392846 -1 0 1
2988 2 30.051503003884918 16.942718349280643 3.3898160707771336 -1 0 1
3040 4 31.150605750534748 16.10574494664923 0.41714250802865593 -1 0 1
3041 2 30.650111572850918 15.279557212063988 0.3205936542597755 -1 0 1
3042 2 32.079875438878936 15.835805289122684 0.3376595838085234 -1 0 1
2644 4 33.812659032882216 15.28522152226374 0.1430312358398969 -1 0 1
3038 2 35.84257094470842 18.418589426007678 0.28203486554268586 -1 0 1
3154 4 34.13491482157978 16.618669944100038 2.647584498208044 0 0 0
3155 2 35.08794689248452 16.612733809234562 2.8709123018309715 0 0 0
3156 2 34.02020978485292 16.095098719317633 1.8383540158887806 0 0 0
2641 4 38.23354314257306 15.083038502291176 0.1941740854437332 -1 0 1
2662 4 38.151387158122276 14.395003035358672 2.8282867491297043 -1 0 1
2663 2 38.29646082670356 14.723210941967317 1.916957039155647 -1 0 1
2664 2 37.711988520168205 15.133743078851584 3.2785828835032484 -1 0 1
3034 4 38.506416293689696 17.98942544314827 1.705268759698973 -1 0 1
3035 2 39.32628650275199 17.45819710695043 1.7825077155009805 -1 0 1
3036 2 38.542852796435696 18.23775429425187 0.7673299693842215 -1 0 1
3112 4 36.7458213677127 16.779021089614485 3.4542875013838965 0 0 0
709 4 40.940654822595434 16.810108873050165 1.6047714236645192 -1 0 0
710 2 41.23033004942899 15.91079145510917 1.3998481124325235 -1 0 0
711 2 41.39973631210438 17.02996667518897 2.433741079088923 -1 0 0
4669 4 41.99612138285809 17.719324547060197 4.023272162524976 0 0 0
4671 2 42.00037225601988 18.661063678553873 3.787147181698184 0 0 0
1954 4 2.3662763999950718 19.047575228294463 1.768224688698486 0 0 0
1955 2 3.0336358831266845 19.446385225760572 2.362524949117956 0 0 0
4547 2 21.25375992646698 40.8907350753822 28.276755866751838 0 0 0
1930 4 27.98070293588783 40.54437198042834 29.233252692755126 0 0 -1
1931 2 28.915830671467955 40.81297794588031 29.332762818132537 0 0 -1
1932 2 27.56917292255329 41.27752525556873 28.76541501944719 0 0 -1
1999 4 3.9561956172917907 20.627609460427358 3.2263360695568464 0 0 0
2000 2 4.876056463015563 20.417443032980973 2.950016339916804 0 0 0
3751 4 6.534079979951119 20.086467100955918 2.5743120184921597 0 -1 1
3752 2 6.674402047130668 19.919308423792618 1.6283730299825117 0 -1 1
1875 2 9.616012101635235 22.07533516619627 0.5409731149868768 0 0 0
2161 4 30.685385615200182 41.185072806443664 29.43185042569668 0 0 -1
2162 2 31.029781784310913 41.12520092375991 28.520692022351792 0 0 -1
2163 2 10.287708741517294 19.61719723698461 0.4437278185074773 0 0 0
1916 2 13.671217862425612 19.82821795760832 3.3708242665101853 0 0 0
2308 4 13.487020880743737 19.29609385349461 1.7230356161209262 0 0 0
2309 2 14.100019078046326 18.597211798301096 1.4430988881638847 0 0 0
2310 2 12.595639999355134 18.93278049202271 1.5590778457944834 0 0 0
2092 4 14.37799535557673 21.790320664329233 0.8244813961147226 0 0 0
2093 2 14.013849552755351 20.969468501519756 1.1965968811041217 0 0 0
2094 2 14.842810813399993 22.26285889881848 1.538499844329914 0 0 0
708 2 18.79150172870534 18.174608164803796 2.2078585142847933 0 0 0
3007 4 43.095903819976236 43.69256805263576 29.25742210615727 -1 0 0
3009 2 42.75848684896544 44.40673198123617 28.69268087086202 -1 0 0
4039 4 21.51784539993889 20.939761074428894 1.7361818309280772 0 0 0
4169 2 38.17056201169398 42.080875956795396 28.56377365374052 0 0 -1
4171 4 18.763549293891497 20.044927493784765 2.05361155240217 0 0 0
4172 2 18.36291905555346 20.412371477832476 1.241194208382228 0 0 0
4173 2 19.673375797095822 20.382128917528384 2.023117255472776 0 0 0
4937 2 40.46142101658099 39.45383742678788 27.416228000784134 0 0 0
1539 2 23.612471352155083 21.092127521706946 2.0595696602446214 -1 -1 1
2939 2 23.471634007112197 18.528320427136347 1.2501899439698831 -1 0 1
2979 2 25.636802239540696 19.90931614987124 1.1237220313551042 -1 0 1
2989 4 24.22067592873612 17.748885611948353 2.7547012302432816 -1 0 1
2990 2 24.063595899115157 18.362028436574175 3.500252156801177 -1 0 1
4040 2 21.519411591027215 21.652115657921254 1.0752640830797655 0 0 0
2977 4 26.352205674362477 19.42454788974589 0.6729729407698068 -1 0 1
1495 4 30.367781118483002 21.70700123231968 3.781223904094803 -1 -1 1
1496 2 30.50565523724942 21.28296504892306 2.9196841345168885 -1 -1 1
1723 4 30.996252628730502 20.535620021562032 1.2762215310829064 -1 -1 1
1724 2 30.34281974777179 19.934318099734583 0.9090108138163963 -1 -1 1
1725 2 31.722050202799018 19.968763061629364 1.5802006951915826 -1 -1 1
4016 2 33.23256891027599 19.380534478162705 4.562548024126035 0 0 0
4204 4 32.78661561846287 18.98611401598311 2.8244539954051464 0 0 0
4205 2 33.373909906873706 18.23004679392811 2.633080983723529 0 0 0
4206 2 31.92500698979157 18.549853850460792 2.9841828727509894 0 0 0
3037 4 35.69269457625733 19.359037314220185 0.10270167183351336 -1 0 1
3039 2 35.66877015542063 19.837123015957367 0.9447038653953583 -1 0 1
4105 4 34.886083778445254 20.96595936685196 2.301132901313658 0 0 0
4106 2 34.03675477554207 20.512085422461734 2.3660720488558518 0 0 0
4107 2 35.049607625137995 21.278009801297994 3.2119065177555495 0 0 0
1706 2 39.44285103378163 21.246414732401718 3.049372951074907 -1 -1 1
3022 4 38.81426675617909 19.786085514690463 3.743824018417186 -1 0 1
3023 2 39.207482450467445 19.148274973467796 4.371692746783771 -1 0 1
3024 2 38.61136211035165 19.238092219887868 2.961593315661642 -1 0 1
3114 2 37.281241817850955 17.29029690983918 2.8198949325140146 0 0 0
2225 2 61.65445401854071 44.471808694523986 29.071737524523737 -1 0 -1
2230 4 42.1417652459025 20.400915806304248 3.202194935515347 -1 0 0
2231 2 41.445786621115296 20.942627231613443 2.8043426462616527 -1 0 0
2232 2 42.69606344051898 20.018969082376586 2.4988625938575324 -1 0 0
1747 4 1.3855103056348144 24.757091118096355 1.8221071730611411 0 0 0
1748 2 42.46519054872471 24.589063705997606 2.601124282057302 -1 0 0
1749 2 0.8013079991219897 24.643375415374816 1.0457895239638493 0 0 0
2224 4 20.664904438468042 45.19293798096373 29.002699375206223 0 0 -1
3724 4 23.07989046815936 40.68756876647261 28.608028840727574 0 -1 0
3726 2 2.331800316721623 19.672907740413308 0.11928389817939619 0 -1 1
2001 2 3.726281533715016 21.462911532302694 2.7796427224765257 0 0 0
2130 2 6.955289538550105 23.33278206224021 3.0613662856766997 0 0 0
2143 4 3.5678123318880868 23.034514576008526 1.8041622189224245 0 0 0
2144 2 4.278696201420348 23.551492733222645 2.2303943137012743 0 0 0
2145 2 2.771851580221624 23.600300801070432 1.8373318260872002 0 0 0
3725 2 23.64941553366447 41.45547577774553 28.454043282952032 0 -1 0
1873 4 9.239399980282666 22.945462628149805 0.7624628773132834 0 0 0
1874 2 9.948035693674022 23.430113019345363 1.2150495642401535 0 0 0
1969 4 33.64431369284455 44.39548021366198 28.762305517379215 0 0 -1
1971 2 34.07969684691499 43.75758661973555 29.3535177198312 0 0 -1
2128 4 7.628211066357084 22.634706267466594 2.9697025287928365 0 0 0
2129 2 8.130370924209586 22.81058153253907 2.149726091248575 0 0 0
3753 2 6.943921808298585 20.95099494283982 2.7515835979012215 0 -1 1
1996 4 13.814863488338792 26.1792427094455 0.043508897701311285 0 0 0
1997 2 13.489871939512913 26.163174468900177 0.9656524373795552 0 0 0
2065 4 11.005851371551175 24.11973458535626 2.7574622378717017 0 0 0
2066 2 11.449300683728794 23.442335519713286 3.2965416238925958 0 0 0
2067 2 10.417800545775512 24.559005712338376 3.3966266155253977 0 0 0
1765 4 17.60759293742694 25.37400587622201 2.0798127359419394 0 0 0
1766 2 17.125823929751242 25.935095746497776 1.4449123381607842 0 0 0
1767 2 17.093462858199253 24.556755277324516 2.1799860465388465 0 0 0
1998 2 14.744062341168355 26.480392456864582 0.10321880107066887 0 0 0
4168 4 38.996398194433084 42.04427037312928 29.060800321509376 0 0 -1
1280 2 24.598044619905707 23.998621599644938 1.752635804131361 -1 -1 1
1458 2 46.22164435063534 42.46002317741593 28.804951711638328 -1 -1 0
1537 4 24.543908976580546 20.91428141222188 2.2288269047048925 -1 -1 1
1538 2 24.958762582895 21.762545673848802 2.4201341401387584 -1 -1 1
1715 2 22.15061039787405 25.37487885854159 3.859916676306642 -1 -1 1
1456 4 47.10241368525351 42.87161024504877 28.933552459117582 -1 -1 0
1457 2 47.689075403726974 42.10854779195676 28.996663582917652 -1 -1 0
1591 4 27.167717665138703 25.765917039335992 2.0863928604716264 -1 -1 1
1592 2 26.593523027884803 25.975650883772246 1.3195657000491399 -1 -1 1
4129 4 26.357209014270772 23.182499573522044 2.032376842788403 0 0 0
4130 2 26.404371677399094 22.859834358335924 1.1118730431193895 0 0 0
4131 2 26.77252279508631 24.0700256663843 2.072394943077938 0 0 0
1366 4 30.4115426240554 25.34879326802201 2.5814147887681504 -1 -1 1
1367 2 29.73548356797554 25.388434146849594 3.2832158151868427 -1 -1 1
1368 2 30.01497607808946 24.96989080229611 1.7771719116510012 -1 -1 1
1497 2 31.086618894859242 22.354962156446526 3.845310887079395 -1 -1 1
1506 2 31.754051139424277 24.35098164754539 3.238451922534921 -1 -1 1
1504 4 32.42446583469973 23.692458927419295 3.4974464259351046 -1 -1 1
1505 2 32.90111644322513 24.042610823033847 4.265732408923156 -1 -1 1
1720 4 34.35550245494708 23.618434138484833 1.4685022213421481 -1 -1 1
1721 2 34.660537366579426 22.699414868108605 1.5546126676740821 -1 -1 1
1722 2 33.62085306318056 23.653340938738225 2.112463794172556 -1 -1 1
3940 4 35.90473752560604 25.472052559501883 2.9433386906153394 0 0 0
3941 2 35.39520862292625 24.892475392813633 2.345515490799411 0 0 0
3942 2 36.63981080894335 24.902216331037156 3.2483715906144877 0 0 0
1657 4 37.88826885661353 23.922204940804168 3.968777459106116 -1 -1 1
1658 2 38.550786841831005 24.446719423347027 4.446983498726704 -1 -1 1
1659 2 38.390094189812544 23.292990936664143 3.4366620715713943 -1 -1 1
1705 4 39.8737756560061 22.038790945570227 2.6633765817977597 -1 -1 1
1707 2 39.68719976434251 22.05573679039084 1.7073860351334305 -1 -1 1
1894 4 2.2906042192083698 27.376473451175205 2.059687161410011 0 0 0
1896 2 1.9832112583824457 26.46277026260965 1.913670035285589 0 0 0
1801 4 5.061755792327223 27.102792126061537 2.5940104494194682 0 0 0
1802 2 5.224008458192001 27.251126164575847 1.6452703409945044 0 0 0
1803 2 5.501137139581143 27.81399599622139 3.089415356086964 0 0 0
1846 4 5.482273807685624 24.407879555471617 3.259244601812934 0 0 0
1847 2 5.421970431926951 25.360999646034152 3.070252516776888 0 0 0
1848 2 5.071933068715332 24.261967795226845 4.135306867323925 0 0 0
1895 2 3.1993426940071377 27.305139587313487 2.3954258397983734 0 0 0
2023 4 6.563412937380864 28.980298247742123 4.16474079122706 0 0 0
2025 2 7.4223339516598905 28.556503692786116 3.981941442152721 0 0 0
2197 4 8.97728781386196 27.877069500367313 3.3097267202871508 0 0 0
2198 2 9.059952020325268 27.802266124254313 2.345280805981137 0 0 0
2199 2 9.152417418554691 27.003113418395532 3.6997255950477625 0 0 0
2272 4 9.512525333656052 28.493032575752046 0.4866393554336795 0 0 0
2273 2 9.352051967970363 29.433837471815114 0.6815065585754537 0 0 0
1832 2 14.549025878438988 27.2814825718108 2.784719845331797 0 0 0
2095 4 33.01577319185427 49.216147438751165 28.736136940458913 0 0 -1
2096 2 33.48142440072966 48.38740678695945 28.93654127906888 0 0 -1
2149 4 12.908369307194818 26.137784722159754 2.6866439084946125 0 0 0
2150 2 12.38680574008723 26.96516984559361 2.834707087898405 0 0 0
2151 2 12.258337661858818 25.40830032607547 2.643278974810139 0 0 0
2274 2 10.43480827024642 28.445289310685105 0.17988131012353187 0 0 0
3871 4 11.741074986452332 28.44715839909968 3.1315970093980217 0 -1 1
1831 4 14.977483416214502 28.1129230021304 2.5501290610346135 0 0 0
1833 2 15.341376782737346 28.486040183067935 3.3618161765298713 0 0 0
1989 2 18.08903341341415 26.06055650628003 3.695039190837528 0 0 0
4801 4 16.37438083579599 27.18821695859184 0.35182550348682806 0 -1 1
4803 2 16.080476735862916 27.828272895288038 1.0167281700690887 0 -1 1
1582 4 20.184171079531563 26.32212383596032 1.2093251007240047 -1 -1 1
1584 2 20.806029867788475 26.20041667869808 1.9510688491145651 -1 -1 1
4213 4 19.521626989040865 28.931015711504823 3.7379942703594278 0 0 0
4214 2 20.495750729233293 28.927925035364698 3.6727872954830874 0 0 0
4215 2 19.26125067694773 28.026111771606477 3.989138970730278 0 0 0
1501 4 26.122746236433898 27.780593746488037 3.7812723737163583 -1 -1 1
1503 2 26.38675637751405 27.003744944628004 3.260962952703566 -1 -1 1
1714 4 22.208887370589558 25.97976097869121 3.0948073284622004 -1 -1 1
1716 2 22.853779003126647 25.55664571849314 2.5013841184723176 -1 -1 1
1502 2 26.946713000069607 28.09867018605565 4.172523046193041 -1 -1 1
1593 2 27.94057476818252 26.337215718083947 1.9346590555881484 -1 -1 1
4150 4 28.83790864164739 28.481440892972255 4.346575332012823 0 0 0
4151 2 28.874856721622987 28.35293637531814 3.3747470043473484 0 0 0
4152 2 28.944531416611788 27.57287274683331 4.684050514648151 0 0 0
1579 4 31.4803118676656 27.85160949477974 2.3764388030275096 -1 -1 1
1580 2 32.20967559727968 27.967816753770787 3.0094326727116134 -1 -1 1
1581 2 31.159184178689017 26.934285186516004 2.4625292266245373 -1 -1 1
1666 4 35.69687728992311 30.755497291577658 4.881484025967666 -1 -1 1
1588 4 37.06474479525796 27.507506629048223 1.327268078864842 -1 -1 1
1589 2 36.76625994354821 26.791103335538548 1.9160420998921897 -1 -1 1
1590 2 38.0406823230561 27.55302665946421 1.3386902077383735 -1 -1 1
1679 2 36.58313528541389 29.150003548873425 2.0245509873988436 -1 -1 1
3814 4 39.76953897011524 28.026846191368968 1.1456808900391358 -1 -1 1